
 Primary working directories    : /scratch/fscr/protassow_46956.tcPBSx.chemie.uni-bielefeld.de/tmp
 Secondary working directories  : /scratch/fscr/protassow_46956.tcPBSx.chemie.uni-bielefeld.de/tmp
 Wavefunction directory         : /raid/home/protassow/wfu/
 Main file repository           : /scratch/fscr/protassow_46956.tcPBSx.chemie.uni-bielefeld.de/tmp/

 SHA1      : 41aa48e1468dac041f2eaabdf410f3ce2ee7f8bf
 NAME      : 2015.1.0
 ARCHNAME  : linux/x86_64
 FC        : /opt/intel/composer_xe_2015.1.133/bin/intel64/ifort
 BLASLIB   : -Wl,-_start-group /opt/intel/mkl/lib/intel64/libmkl_intel_ilp64.a /opt/intel/mkl/lib/intel64/libmkl_sequential.a /opt/intel/mkl/lib/intel64/libmkl_core.a -Wl,-_end-group
 id        : unibielefeld

 Nodes     nprocs
 tcP2A0b     20

 Using customized tuning parameters: mindgm=1; mindgv=20; mindgc=4; mindgr=1; noblas=0; minvec=7
 default implementation of scratch files=sf  

 nosym
 memory,140,m
 
 geom={ang
 h1
 x1,h1,a
 h2,x1,a,h1,90
 x2,h2,a,x1,90,h1,90
 h3,x2,a,h2,90,x1,0
 x3,h3,a,x2,90,x1,-90
 h4,x3,a,h1,90,h3,90
 x4,h1,0.5*a,x3,-90,x1,90
 x5,x4,0.5*a,h1,90,x3,0
 c1,x5,0.5*a,x4,90,h1,90
 cl1,c1,r,h3,phi,h2,theta}
 
 a=1.25624302
 phi=180
 theta=70.5
 
 r=-2*a
 
 basis=vqz-f12
 hf
 rccsd(t)-f12
 
 
 put,molden,komplex.molden
 

 Variables initialized (889), CPU time= 0.07 sec
 Commands  initialized (702), CPU time= 0.05 sec, 572 directives.
 Default parameters read. Elapsed time= 0.32 sec

 Checking input...
 Passed
1


                                         ***  PROGRAM SYSTEM MOLPRO  ***
                                       Copyright, TTI GmbH Stuttgart, 2015
                                    Version 2015.1 linked Nov 13 2015 17:13:29


 **********************************************************************************************************************************
 LABEL *                                                                                 
  64 bit mpp version                                                                     DATE: 02-May-17          TIME: 15:45:19  
 **********************************************************************************************************************************

 SHA1:             41aa48e1468dac041f2eaabdf410f3ce2ee7f8bf
 **********************************************************************************************************************************

 Variable memory set to    8000000 words,  buffer space   230000 words

 ZSYMEL=NOSYM
 
 SETTING A              =         1.25624302                                  
 SETTING PHI            =       180.00000000                                  
 SETTING THETA          =        70.50000000                                  
 SETTING R              =        -2.51248604                                  

 Variable memory set to  140000000 words,  buffer space   230000 words

 SETTING BASIS          =    VQZ-F12


 Recomputing integrals since basis changed


 Using spherical harmonics

 Library entry H      S cc-pVQZ-F12          selected for orbital group  1
 Library entry H      P cc-pVQZ-F12          selected for orbital group  1
 Library entry H      D cc-pVQZ-F12          selected for orbital group  1
 Library entry H      F cc-pVQZ-F12          selected for orbital group  1
 Library entry C      S cc-pVQZ-F12          selected for orbital group  2
 Library entry C      P cc-pVQZ-F12          selected for orbital group  2
 Library entry C      D cc-pVQZ-F12          selected for orbital group  2
 Library entry C      F cc-pVQZ-F12          selected for orbital group  2
 Library entry C      G cc-pVQZ-F12          selected for orbital group  2
 Library entry CL     S cc-pVQZ-F12          selected for orbital group  3
 Library entry CL     P cc-pVQZ-F12          selected for orbital group  3
 Library entry CL     D cc-pVQZ-F12          selected for orbital group  3
 Library entry CL     F cc-pVQZ-F12          selected for orbital group  3
 Library entry CL     G cc-pVQZ-F12          selected for orbital group  3

1PROGRAM * SEWARD (Integral evaluation for generally contracted gaussian basis sets)     Author: Roland Lindh, 1990

 Geometry written to block  1 of record 700

 Orientation using atomic masses  
 Molecule type: Symmetric top,     Order of principal axis = 3
 Rotational constants:       6.9322068      6.9322068    158.8565731 GHz  (calculated with average atomic masses)

 Point group  C1  



 ATOMIC COORDINATES

 NR  ATOM    CHARGE       X              Y              Z

   1  H1      1.00    1.938326348    0.000000000    3.954069441
   2  H2      1.00   -0.969163174   -1.678639858    3.954069441
   3  H3      1.00    0.000000000   -0.000000000    1.212862031
   4  H4      1.00   -0.969163174    1.678639858    3.954069441
   5  C1      6.00    0.000000000   -0.000000000    3.268767588
   6  CL1    17.00   -0.000000000    0.000000000   -1.479142919

 Bond lengths in Bohr (Angstrom)

 1-5  2.055905557  2-5  2.055905557  3-5  2.055905557  3-6  2.692004950  4-5  2.055905557
     ( 1.087938369)     ( 1.087938369)     ( 1.087938369)     ( 1.424547671)     ( 1.087938369)

 Bond angles

  1-5-2  109.47122063   1-5-3  109.47122063   1-5-4  109.47122063   2-5-3  109.47122063

  2-5-4  109.47122063   3-5-4  109.47122063   5-3-6  179.99999852

 NUCLEAR CHARGE:                   27
 NUMBER OF PRIMITIVE AOS:         444
 NUMBER OF SYMMETRY AOS:          373
 NUMBER OF CONTRACTIONS:          319   ( 319A   )
 NUMBER OF CORE ORBITALS:           6   (   6A   )
 NUMBER OF VALENCE ORBITALS:       12   (  12A   )


 NUCLEAR REPULSION ENERGY   50.09992489


 Eigenvalues of metric

         1 0.281E-05 0.293E-05 0.293E-05 0.704E-05 0.123E-04 0.241E-04 0.284E-04 0.284E-04


 Contracted 2-electron integrals neglected if value below      1.0D-12
 AO integral compression algorithm  1   Integral accuracy      1.0D-12

     4526.965 MB (compressed) written to integral file ( 37.2%)

     Node minimum: 182.977 MB, node maximum: 364.118 MB


 NUMBER OF SORTED TWO-ELECTRON INTEGRALS:   65152560.     BUFFER LENGTH:  32768
 NUMBER OF SEGMENTS:   3  SEGMENT LENGTH:   31996380      RECORD LENGTH: 524288

 Memory used in sort:      32.55 MW

 SORT1 READ  1522444098. AND WROTE    44469416. INTEGRALS IN    128 RECORDS. CPU TIME:    26.13 SEC, REAL TIME:    34.92 SEC
 SORT2 READ   888756756. AND WROTE  1302566320. INTEGRALS IN  16500 RECORDS. CPU TIME:     2.29 SEC, REAL TIME:    71.12 SEC

 Node minimum:    65104072.  Node maximum:    65152560. integrals

 OPERATOR DM      FOR CENTER  0  COORDINATES:    0.000000    0.000000    0.000000


 **********************************************************************************************************************************
 DATASETS  * FILE   NREC   LENGTH (MB)   RECORD NAMES
              1      18       20.27       500      610      700      900      950      970     1000      129      960     1100   
                                          VAR    BASINP    GEOM    SYMINP    ZMAT    AOBASIS   BASIS     P2S    ABASIS      S 
                                         1400     1410     1200     1210     1080     1600     1650     1700   
                                           T        V       H0       H01     AOSYM     SMH    MOLCAS    OPER   

 PROGRAMS   *        TOTAL       INT
 CPU TIMES  *        38.01     37.56
 REAL TIME  *       119.09 SEC
 DISK USED  *        15.14 GB      
 GA USED    *         0.00 MB       (max)       0.00 MB       (current)
 **********************************************************************************************************************************

1PROGRAM * RHF-SCF (OPEN SHELL)       Authors: W. Meyer, H.-J. Werner


 NUMBER OF ELECTRONS:      14+   13-    SPACE SYMMETRY=1    SPIN SYMMETRY: Doublet 
 CONVERGENCE THRESHOLDS:    1.00E-05 (Density)    1.00E-07 (Energy)
 MAX. NUMBER OF ITERATIONS:       60
 INTERPOLATION TYPE:            DIIS
 INTERPOLATION STEPS:              2 (START)      1 (STEP)
 LEVEL SHIFTS:                 -0.60 (CLOSED) -0.30 (OPEN) 



 Orbital guess generated from atomic densities. Full valence occupancy:   18

 Molecular orbital dump at record        2100.2

 Initial alpha occupancy:  14
 Initial beta  occupancy:  13
 Wave function symmetry:    1

 ITERATION    DDIFF          GRAD             ENERGY        2-EL.EN.            DIPOLE MOMENTS         DIIS   ORB.
    1      0.000D+00      0.000D+00      -499.62018790    477.297103   -0.00000    0.00000    1.18870    0    start
    2      0.000D+00      0.170D-02      -499.63692224    476.638374   -0.00000    0.00000    0.97096    1    diag,B
    3      0.141D-02      0.705D-03      -499.64128907    476.595178   -0.00000    0.00000    0.89508    2    diag,B
    4      0.608D-03      0.305D-03      -499.64261885    476.548316   -0.00000    0.00000    0.84521    3    diag,B
    5      0.344D-03      0.127D-03      -499.64302363    476.526153   -0.00000   -0.00000    0.81404    4    diag,B
    6      0.237D-03      0.614D-04      -499.64317928    476.503594   -0.00000   -0.00000    0.78973    5    diag,B
    7      0.166D-03      0.387D-04      -499.64327670    476.483941   -0.00000   -0.00000    0.75965    6    fixocc
    8      0.143D-03      0.181D-04      -499.64329828    476.474592   -0.00000   -0.00000    0.74101    7    diag,B
    9      0.752D-04      0.529D-05      -499.64329947    476.473725   -0.00000   -0.00000    0.73657    8    diag,B
   10      0.250D-04      0.156D-05      -499.64329952    476.473732   -0.00000   -0.00000    0.73589    9    orth
   11      0.959D-05      0.429D-06      -499.64329953    476.473801   -0.00000    0.00000    0.73588    0    orth

 Final alpha occupancy:  14
 Final beta  occupancy:  13

 !RHF STATE 1.1 Energy               -499.643299526532
 Nuclear energy                        50.09992489
 One-electron energy                 -787.98012501
 Two-electron energy                  238.23690059
 Virial quotient                       -0.99935628
 !RHF STATE 1.1 Dipole moment          -0.00000000     0.00000000     0.73588057
 Dipole moment /Debye                  -0.00000000     0.00000000     1.87029933

 Orbital energies:

         1.1          2.1          3.1          4.1          5.1          6.1          7.1          8.1          9.1         10.1
   -104.838738   -11.243907   -10.565249    -8.031825    -8.029337    -8.029337    -1.105744    -0.962579    -0.640000    -0.582392

        11.1         12.1         13.1         14.1         15.1         16.1
     -0.582392    -0.465892    -0.465892    -0.419792     0.044477     0.057501

 HOMO     14.1    -0.419792 =     -11.4231eV
 LUMO     15.1     0.044477 =       1.2103eV
 LUMO-HOMO         0.464269 =      12.6334eV


 **********************************************************************************************************************************
 DATASETS  * FILE   NREC   LENGTH (MB)   RECORD NAMES
              1      18       20.27       500      610      700      900      950      970     1000      129      960     1100   
                                          VAR    BASINP    GEOM    SYMINP    ZMAT    AOBASIS   BASIS     P2S    ABASIS      S 
                                         1400     1410     1200     1210     1080     1600     1650     1700   
                                           T        V       H0       H01     AOSYM     SMH    MOLCAS    OPER   

              2       4        3.37       700     1000      520     2100   
                                         GEOM     BASIS   MCVARS     RHF  

 PROGRAMS   *        TOTAL        HF       INT
 CPU TIMES  *        47.78      9.76     37.56
 REAL TIME  *       140.65 SEC
 DISK USED  *        15.91 GB      
 SF USED    *         0.41 MB      
 GA USED    *         0.00 MB       (max)       0.00 MB       (current)
 **********************************************************************************************************************************


1PROGRAM * CCSD (Restricted open-shell coupled cluster)     Authors: C. Hampel, H.-J. Werner, 1991, M. Deegan, P.J. Knowles, 1992

                   Density fitting integral evaluation by F.R. Manby, 2003,2007, G. Knizia, 2010

 Basis set CC-PVQZ/JKFIT generated.      Number of basis functions:   458 
 Basis set CC-PVQZ-F12/OPTRI generated.  Number of basis functions:   372 
 Basis set AUG-CC-PVQZ/MP2FIT generated. Number of basis functions:   682 

 Convergence thresholds:  THRVAR = 1.00D-08  THRDEN = 1.00D-06

 CCSD(T)     terms to be evaluated (factor= 1.000)


 Number of core orbitals:           6 (   6 )
 Number of closed-shell orbitals:   7 (   7 )
 Number of active  orbitals:        1 (   1 )
 Number of external orbitals:     305 ( 305 )

 For minimal I/O algorithm in triples, increase memory by 64.40 Mwords to 204.68 Mwords.

 For full I/O caching in triples, increase memory by 292.29 Mwords to 432.57 Mwords.

 Number of N-1 electron functions:              15
 Number of N-2 electron functions:             105
 Number of singly external CSFs:              4590
 Number of doubly external CSFs:           7530201
 Total number of CSFs:                     7534791

 Molecular orbitals read from record     2100.2  Type=RHF/CANONICAL (state 1.1)

 Multipassing necessary in transformation. To avoid, increase memory by 14.47 Mwords.

 Integral transformation finished. Total CPU:  38.91 sec, npass=  2  Memory used: 137.40 MW
 
 Geminal basis:    OPTFULL  GEM_TYPE=SLATER  BETA=1.0  NGEM=6

 Optimizing Gaussian exponents for each gem_beta

 Geminal optimization for beta= 1.0000
 Weight function:   m=0, omega= 1.4646

 Augmented Hessian optimization of geminal fit. Trust ratio= 0.40000
 Convergence reached after   2 iterations. Final gradient= 8.41D-16, Step= 4.29D-06, Delta= 1.28D-09
 
 Alpha:                 0.19532     0.81920     2.85917     9.50073    35.69989   197.79328
 Coeff:                 0.27070     0.30552     0.18297     0.10986     0.06810     0.04224
 
 
 WFN_F12=FIX,EG    DECOUPLE_EXPL=F   HYBRID=0    NOX=F   SEMIINT_F12=T   CORE_SINGLES=F
 
 AO(A)-basis ORBITAL           loaded. Number of functions:     319
 RI(R)-basis CC-PVQZ-F12/OPTRI loaded. Number of functions:     372
 DF-basis CC-PVQZ/JKFIT        loaded. Number of functions:     458

 Screening thresholds:   THRAO=  1.00D-10  THRMO=  1.00D-09  THRPROD=  1.00D-09
                         THRSW=  1.00D-05  THROV=  1.00D-12  THRAOF12=   1.00D-08

 CPU time for one-electron matrices               2.57 sec
 
 Construction of ABS:
 Pseudo-inverse stability          3.62E-12
 Smallest eigenvalue of S          2.35E-04  (threshold= 1.00E-08)
 Ratio eigmin/eigmax               3.95E-05  (threshold= 1.00E-09)
 Smallest eigenvalue of S kept     2.35E-04  (threshold= 2.35E-04, 0 functions deleted, 372 kept)
 
 Construction of CABS:
 Pseudo-inverse stability          1.23E-09
 Smallest eigenvalue of S          1.66E-08  (threshold= 1.00E-08)
 Ratio eigmin/eigmax               1.66E-08  (threshold= 1.00E-09)
 Smallest eigenvalue of S kept     1.66E-08  (threshold= 1.66E-08, 0 functions deleted, 372 kept)
 
 CPU time for basis constructions                 0.11 sec
 Fock operators(MO) rebuilt from dump record.
 CPU time for fock operators                      0.29 sec
 
                                      TOTAL          ALPHA          BETA    
  Singles Contributions MO        -0.005175942   -0.002571370   -0.002604572
  Singles Contributions CABS      -0.000114962   -0.000066450   -0.000048511
  Pure DF-RHF relaxation          -0.000112477
 
 CPU time for singles                             0.63 sec
 
 AO(A)-basis ORBITAL           loaded. Number of functions:     319
 RI(R)-basis CC-PVQZ-F12/OPTRI loaded. Number of functions:     372
 DF-basis AUG-CC-PVQZ/MP2FIT   loaded. Number of functions:     682

 Screening thresholds:   THRAO=  1.00D-10  THRMO=  1.00D-09  THRPROD=  1.00D-09
                         THRSW=  1.00D-05  THROV=  1.00D-12  THRAOF12=   1.00D-08

 CPU time for transformed integrals               4.03 sec
 CPU time for F12 matrices                        3.63 sec

 Diagonal F12 ansatz with fixed amplitudes:   TS= 0.5000  TT= 0.2500  TN= 0.3750
 
 ITER.     SQ.NORM      CORR.ENERGY   TOTAL ENERGY  ENERGY CHANGE      VAR         CPU   MICRO    DIIS
   1      1.14185830    -0.45389752  -500.09730952    -4.5401E-01   1.38E-01      0.38  1  1  1   0  0
   2      1.14006676    -0.45156810  -500.09498011     2.3294E-03   6.01E-05      1.50  0  0  0   1  1
   3      1.14020164    -0.45171117  -500.09512318    -1.4307E-04   1.12E-07      3.05  0  0  0   2  2
   4      1.14020199    -0.45171138  -500.09512339    -2.0700E-07   2.02E-10      4.95  0  0  0   3  3
 
 - - Continuing with F12/conv. amplitude coupling turned on.
 
   5      1.14008825    -0.45166695  -500.09507895     4.4227E-05   2.61E-05      6.36  1  1  1   1  1
   6      1.14008819    -0.45166671  -500.09507871     2.3804E-07   3.69E-10      8.20  1  1  1   2  2
 
 CPU time for iterative RMP2-F12                  8.20 sec
 
 
 DF-RMP2-F12 doubles corrections:
 - - - - - - - - - - - - - - - - 
  Approx.                             TOTAL           A-B            A-A            B-B    
  RMP2-F12/3C(FIX)                -0.023630467   -0.022670318   -0.000585328   -0.000374820
  RMP2-F12/3*C(FIX)               -0.023675138   -0.022721988   -0.000581119   -0.000372031
  RMP2-F12/3*C(DX)                -0.023687305   -0.022732337   -0.000582327   -0.000372641
  RMP2-F12/3*C(FIX,DX)            -0.023976658   -0.022995595   -0.000598762   -0.000382301
 
 DF-RMP2-F12 doubles energies:
 - - - - - - - - - - - - - - -
  Approx.                             TOTAL           A-B            A-A            B-B    
  RMP2                            -0.422860302   -0.332233346   -0.051270810   -0.039356146
  RMP2-F12/3C(FIX)                -0.446490768   -0.354903664   -0.051856138   -0.039730966
  RMP2-F12/3*C(FIX)               -0.446535440   -0.354955334   -0.051851929   -0.039728176
  RMP2-F12/3*C(DX)                -0.446547607   -0.354965683   -0.051853137   -0.039728787
  RMP2-F12/3*C(FIX,DX)            -0.446836959   -0.355228941   -0.051869572   -0.039738446
 
 
  Reference energy                   -499.643299526530
  CABS relaxation correction to RHF    -0.000112477305
  New reference energy               -499.643412003835
 
  RMP2-F12 singles (MO) energy         -0.005175941719
  RMP2-F12 pair energy                 -0.446490768206
  RMP2-F12 correlation energy          -0.451666709924
 
  RMP2-F12/3C(FIX) energy            -500.095078713759

 Starting RMP2 calculation

 Wavefunction is spin-projected

 ITER.      SQ.NORM     CORR.ENERGY   TOTAL ENERGY   ENERGY CHANGE        DEN1      VAR(S)    VAR(P)  DIIS     TIME
   1      1.13851066    -0.42645350  -500.06975303    -0.42645350    -0.00133332  0.18D-04  0.54D-03  1  1    62.17
   2      1.13982794    -0.42788598  -500.07118551    -0.00143248    -0.00000143  0.49D-07  0.65D-06  2  2    63.68
   3      1.13985509    -0.42790189  -500.07120141    -0.00001590    -0.00000000  0.47D-09  0.13D-08  3  3    65.47
   4      1.13985530    -0.42790185  -500.07120138     0.00000003    -0.00000000  0.76D-11  0.27D-11  4  4    67.30

 Norm of t1 vector:      0.05031069      S-energy:    -0.00447519      T1 diagnostic:  0.00024515
 Norm of t2 vector:      0.37057271      P-energy:    -0.42342666
                                         Alpha-Beta:  -0.33283948
                                         Alpha-Alpha: -0.05139098
                                         Beta-Beta:   -0.03919620

 Spin contamination <S**2-Sz**2-Sz>     0.00000000
  Reference energy                   -499.643412003835
  RHF-RMP2 correlation energy          -0.427901852020
 !RHF-RMP2 energy                    -500.071313855855
 (NB above energy spin projected)

 Starting RCCSD calculation

 ITER.      SQ.NORM     CORR.ENERGY   TOTAL ENERGY   ENERGY CHANGE        DEN1      VAR(S)    VAR(P)  DIIS     TIME
   1      1.15056197    -0.43862727  -500.08192680    -0.43862727    -0.01110905  0.11D-02  0.26D-02  1  1    82.34
   2      1.16119094    -0.44902246  -500.09232199    -0.01039519    -0.00072248  0.78D-04  0.22D-03  2  2    97.23
   3      1.16500358    -0.45154734  -500.09484686    -0.00252487    -0.00005258  0.18D-04  0.12D-04  3  3   109.24
   4      1.16599156    -0.45201129  -500.09531082    -0.00046396    -0.00000714  0.40D-05  0.14D-05  4  4   121.51
   5      1.16629613    -0.45203546  -500.09533499    -0.00002417    -0.00000113  0.85D-06  0.16D-06  5  5   135.40
   6      1.16641907    -0.45205322  -500.09535274    -0.00001776    -0.00000016  0.12D-06  0.22D-07  6  6   150.89
   7      1.16645294    -0.45205533  -500.09535486    -0.00000211    -0.00000002  0.87D-08  0.38D-08  6  1   164.76
   8      1.16645871    -0.45205480  -500.09535433     0.00000053    -0.00000000  0.12D-08  0.56D-09  6  2   178.33

 Norm of t1 vector:      0.07695240      S-energy:    -0.00504941      T1 diagnostic:  0.00941023
                                                                       D1 diagnostic:  0.01967617
 Norm of t2 vector:      0.40067074      P-energy:    -0.44700539
                                         Alpha-Beta:  -0.36053901
                                         Alpha-Alpha: -0.04891019
                                         Beta-Beta:   -0.03755619

 Spin contamination <S**2-Sz**2-Sz>     0.00000000

 For minimal I/O algorithm in triples, increase memory by 75.74 Mwords to 216.02 Mwords.

 For full I/O caching in triples, increase memory by 305.89 Mwords to 446.17 Mwords.
 

 RESULTS
 =======

  Reference energy                   -499.643299526529
  CABS relaxation correction to RHF    -0.000112477305
  New reference energy               -499.643412003835
 
  F12 corrections for ansatz 3C(FIX) added to RCCSD energy. Coupling mode: 15
 
  RCCSD-F12a singles energy            -0.005049410146
  RCCSD-F12a pair energy               -0.470639699367
  RCCSD-F12a correlation energy        -0.475689109514
  Triples (T) contribution             -0.018389299500
  Total correlation energy             -0.494078409013
 
  RHF-RCCSD-F12a energy              -500.119101113348
  RHF-RCCSD[T]-F12a energy           -500.137637588241
  RHF-RCCSD-T-F12a energy            -500.137383388572
 !RHF-RCCSD(T)-F12a energy           -500.137490412848
 
  F12 corrections for ansatz 3C(FIX) added to RCCSD energy. Coupling mode: 15
 
  RCCSD-F12b singles energy            -0.005049410146
  RCCSD-F12b pair energy               -0.465059010433
  RCCSD-F12b correlation energy        -0.470108420579
  Triples (T) contribution             -0.018389299500
  Total correlation energy             -0.488497720079
 
  RHF-RCCSD-F12b energy              -500.113520424414
  RHF-RCCSD[T]-F12b energy           -500.132056899307
  RHF-RCCSD-T-F12b energy            -500.131802699638
 !RHF-RCCSD(T)-F12b energy           -500.131909723914

 Program statistics:

 Available memory in ccsd:               139999308
 Min. memory needed in ccsd:              23019538
 Max. memory used in ccsd:                32042126
 Max. memory used in cckext:              23251037 ( 9 integral passes)
 Max. memory used in cckint:             137397138 ( 2 integral passes)



 **********************************************************************************************************************************
 DATASETS  * FILE   NREC   LENGTH (MB)   RECORD NAMES
              1      18       20.27       500      610      700      900      950      970     1000      129      960     1100   
                                          VAR    BASINP    GEOM    SYMINP    ZMAT    AOBASIS   BASIS     P2S    ABASIS      S 
                                         1400     1410     1200     1210     1080     1600     1650     1700   
                                           T        V       H0       H01     AOSYM     SMH    MOLCAS    OPER   

              2       5        4.60       700     1000      520     2100     7360   
                                         GEOM     BASIS   MCVARS     RHF    F12ABS    

 PROGRAMS   *        TOTALRCCSD(T)-F        HF       INT
 CPU TIMES  *       479.39    431.61      9.76     37.56
 REAL TIME  *       732.36 SEC
 DISK USED  *        34.53 GB      
 SF USED    *         9.56 GB      
 GA USED    *         2.47 MB       (max)       0.00 MB       (current)
 **********************************************************************************************************************************

 Dump information in style MOLDEN to komplex.molden                                                                  

 Molecular orbitals read from record     2100.2  Type=RHF/CANONICAL (state 1.1)
 Occupation numbers read from record     2100.2  Type=RHF/RHF (state 1.1)
 Orbital energies read from record       2100.2  Type=RHF/CANONICAL (state 1.1)
 Redundancy group numbers read from rec  2100.2  Type=RHF/RHF (state 1.1)
 
 DUMP ORBITAL  1.1 AS ORBITAL    1  occ=    2.0000  eig= -104.8387  GROUP=   2
 DUMP ORBITAL  2.1 AS ORBITAL    2  occ=    2.0000  eig=  -11.2439  GROUP=   2
 DUMP ORBITAL  3.1 AS ORBITAL    3  occ=    2.0000  eig=  -10.5652  GROUP=   2
 DUMP ORBITAL  4.1 AS ORBITAL    4  occ=    2.0000  eig=   -8.0318  GROUP=   2
 DUMP ORBITAL  5.1 AS ORBITAL    5  occ=    2.0000  eig=   -8.0293  GROUP=   2
 DUMP ORBITAL  6.1 AS ORBITAL    6  occ=    2.0000  eig=   -8.0293  GROUP=   2
 DUMP ORBITAL  7.1 AS ORBITAL    7  occ=    2.0000  eig=   -1.1057  GROUP=   2
 DUMP ORBITAL  8.1 AS ORBITAL    8  occ=    2.0000  eig=   -0.9626  GROUP=   2
 DUMP ORBITAL  9.1 AS ORBITAL    9  occ=    2.0000  eig=   -0.6400  GROUP=   2
 DUMP ORBITAL 10.1 AS ORBITAL   10  occ=    2.0000  eig=   -0.5824  GROUP=   2
 DUMP ORBITAL 11.1 AS ORBITAL   11  occ=    2.0000  eig=   -0.5824  GROUP=   2
 DUMP ORBITAL 12.1 AS ORBITAL   12  occ=    2.0000  eig=   -0.4659  GROUP=   2
 DUMP ORBITAL 13.1 AS ORBITAL   13  occ=    2.0000  eig=   -0.4659  GROUP=   2
 DUMP ORBITAL 14.1 AS ORBITAL   14  occ=    1.0000  eig=   -0.4198  GROUP=   1

 Total charge:      27.000000

 **********************************************************************************************************************************

 RCCSD(T)-F12/cc-pVQZ-F12 energy=   -500.131909723914

    RCCSD(T)-F12        HF-SCF  
   -500.13190972   -499.64329953
 **********************************************************************************************************************************
 Variable memory released
